
Predictions were generated on 16-Jul-2026 at 21:01:44 using BeamDyn




Time	TipTDxr             	TipTDyr             	TipTDzr             	TipRDxr             	TipRDyr             	TipRDzr             	RootFxr             	RootFyr             	RootFzr             	RootMxr             	RootMyr             	RootMzr             	N001_FxL            	N002_FxL            	N003_FxL            	N004_FxL            	N005_FxL            	N006_FxL            	N007_FxL            	N008_FxL            	N009_FxL            	N010_FxL            	N011_FxL            	N012_FxL            	N013_FxL            	N014_FxL            	N015_FxL            	N016_FxL            	N017_FxL            	N018_FxL            	N019_FxL            	N020_FxL            	N021_FxL            	N022_FxL            	N023_FxL            	N024_FxL            	N025_FxL            	N026_FxL            	N027_FxL            	N028_FxL            	N029_FxL            	N030_FxL            	N031_FxL            	N032_FxL            	N033_FxL            	N034_FxL            	N035_FxL            	N036_FxL            	N037_FxL            	N038_FxL            	N039_FxL            	N040_FxL            	N041_FxL            	N042_FxL            	N043_FxL            	N044_FxL            	N045_FxL            	N046_FxL            	N047_FxL            	N048_FxL            	N049_FxL            	N050_FxL            	N051_FxL            	N001_FyL            	N002_FyL            	N003_FyL            	N004_FyL            	N005_FyL            	N006_FyL            	N007_FyL            	N008_FyL            	N009_FyL            	N010_FyL            	N011_FyL            	N012_FyL            	N013_FyL            	N014_FyL            	N015_FyL            	N016_FyL            	N017_FyL            	N018_FyL            	N019_FyL            	N020_FyL            	N021_FyL            	N022_FyL            	N023_FyL            	N024_FyL            	N025_FyL            	N026_FyL            	N027_FyL            	N028_FyL            	N029_FyL            	N030_FyL            	N031_FyL            	N032_FyL            	N033_FyL            	N034_FyL            	N035_FyL            	N036_FyL            	N037_FyL            	N038_FyL            	N039_FyL            	N040_FyL            	N041_FyL            	N042_FyL            	N043_FyL            	N044_FyL            	N045_FyL            	N046_FyL            	N047_FyL            	N048_FyL            	N049_FyL            	N050_FyL            	N051_FyL            	N001_FzL            	N002_FzL            	N003_FzL            	N004_FzL            	N005_FzL            	N006_FzL            	N007_FzL            	N008_FzL            	N009_FzL            	N010_FzL            	N011_FzL            	N012_FzL            	N013_FzL            	N014_FzL            	N015_FzL            	N016_FzL            	N017_FzL            	N018_FzL            	N019_FzL            	N020_FzL            	N021_FzL            	N022_FzL            	N023_FzL            	N024_FzL            	N025_FzL            	N026_FzL            	N027_FzL            	N028_FzL            	N029_FzL            	N030_FzL            	N031_FzL            	N032_FzL            	N033_FzL            	N034_FzL            	N035_FzL            	N036_FzL            	N037_FzL            	N038_FzL            	N039_FzL            	N040_FzL            	N041_FzL            	N042_FzL            	N043_FzL            	N044_FzL            	N045_FzL            	N046_FzL            	N047_FzL            	N048_FzL            	N049_FzL            	N050_FzL            	N051_FzL            	N001_Fxr            	N002_Fxr            	N003_Fxr            	N004_Fxr            	N005_Fxr            	N006_Fxr            	N007_Fxr            	N008_Fxr            	N009_Fxr            	N010_Fxr            	N011_Fxr            	N012_Fxr            	N013_Fxr            	N014_Fxr            	N015_Fxr            	N016_Fxr            	N017_Fxr            	N018_Fxr            	N019_Fxr            	N020_Fxr            	N021_Fxr            	N022_Fxr            	N023_Fxr            	N024_Fxr            	N025_Fxr            	N026_Fxr            	N027_Fxr            	N028_Fxr            	N029_Fxr            	N030_Fxr            	N031_Fxr            	N032_Fxr            	N033_Fxr            	N034_Fxr            	N035_Fxr            	N036_Fxr            	N037_Fxr            	N038_Fxr            	N039_Fxr            	N040_Fxr            	N041_Fxr            	N042_Fxr            	N043_Fxr            	N044_Fxr            	N045_Fxr            	N046_Fxr            	N047_Fxr            	N048_Fxr            	N049_Fxr            	N050_Fxr            	N051_Fxr            	N001_Fyr            	N002_Fyr            	N003_Fyr            	N004_Fyr            	N005_Fyr            	N006_Fyr            	N007_Fyr            	N008_Fyr            	N009_Fyr            	N010_Fyr            	N011_Fyr            	N012_Fyr            	N013_Fyr            	N014_Fyr            	N015_Fyr            	N016_Fyr            	N017_Fyr            	N018_Fyr            	N019_Fyr            	N020_Fyr            	N021_Fyr            	N022_Fyr            	N023_Fyr            	N024_Fyr            	N025_Fyr            	N026_Fyr            	N027_Fyr            	N028_Fyr            	N029_Fyr            	N030_Fyr            	N031_Fyr            	N032_Fyr            	N033_Fyr            	N034_Fyr            	N035_Fyr            	N036_Fyr            	N037_Fyr            	N038_Fyr            	N039_Fyr            	N040_Fyr            	N041_Fyr            	N042_Fyr            	N043_Fyr            	N044_Fyr            	N045_Fyr            	N046_Fyr            	N047_Fyr            	N048_Fyr            	N049_Fyr            	N050_Fyr            	N051_Fyr            	N001_Fzr            	N002_Fzr            	N003_Fzr            	N004_Fzr            	N005_Fzr            	N006_Fzr            	N007_Fzr            	N008_Fzr            	N009_Fzr            	N010_Fzr            	N011_Fzr            	N012_Fzr            	N013_Fzr            	N014_Fzr            	N015_Fzr            	N016_Fzr            	N017_Fzr            	N018_Fzr            	N019_Fzr            	N020_Fzr            	N021_Fzr            	N022_Fzr            	N023_Fzr            	N024_Fzr            	N025_Fzr            	N026_Fzr            	N027_Fzr            	N028_Fzr            	N029_Fzr            	N030_Fzr            	N031_Fzr            	N032_Fzr            	N033_Fzr            	N034_Fzr            	N035_Fzr            	N036_Fzr            	N037_Fzr            	N038_Fzr            	N039_Fzr            	N040_Fzr            	N041_Fzr            	N042_Fzr            	N043_Fzr            	N044_Fzr            	N045_Fzr            	N046_Fzr            	N047_Fzr            	N048_Fzr            	N049_Fzr            	N050_Fzr            	N051_Fzr            	N001_MxL            	N002_MxL            	N003_MxL            	N004_MxL            	N005_MxL            	N006_MxL            	N007_MxL            	N008_MxL            	N009_MxL            	N010_MxL            	N011_MxL            	N012_MxL            	N013_MxL            	N014_MxL            	N015_MxL            	N016_MxL            	N017_MxL            	N018_MxL            	N019_MxL            	N020_MxL            	N021_MxL            	N022_MxL            	N023_MxL            	N024_MxL            	N025_MxL            	N026_MxL            	N027_MxL            	N028_MxL            	N029_MxL            	N030_MxL            	N031_MxL            	N032_MxL            	N033_MxL            	N034_MxL            	N035_MxL            	N036_MxL            	N037_MxL            	N038_MxL            	N039_MxL            	N040_MxL            	N041_MxL            	N042_MxL            	N043_MxL            	N044_MxL            	N045_MxL            	N046_MxL            	N047_MxL            	N048_MxL            	N049_MxL            	N050_MxL            	N051_MxL            	N001_MyL            	N002_MyL            	N003_MyL            	N004_MyL            	N005_MyL            	N006_MyL            	N007_MyL            	N008_MyL            	N009_MyL            	N010_MyL            	N011_MyL            	N012_MyL            	N013_MyL            	N014_MyL            	N015_MyL            	N016_MyL            	N017_MyL            	N018_MyL            	N019_MyL            	N020_MyL            	N021_MyL            	N022_MyL            	N023_MyL            	N024_MyL            	N025_MyL            	N026_MyL            	N027_MyL            	N028_MyL            	N029_MyL            	N030_MyL            	N031_MyL            	N032_MyL            	N033_MyL            	N034_MyL            	N035_MyL            	N036_MyL            	N037_MyL            	N038_MyL            	N039_MyL            	N040_MyL            	N041_MyL            	N042_MyL            	N043_MyL            	N044_MyL            	N045_MyL            	N046_MyL            	N047_MyL            	N048_MyL            	N049_MyL            	N050_MyL            	N051_MyL            	N001_MzL            	N002_MzL            	N003_MzL            	N004_MzL            	N005_MzL            	N006_MzL            	N007_MzL            	N008_MzL            	N009_MzL            	N010_MzL            	N011_MzL            	N012_MzL            	N013_MzL            	N014_MzL            	N015_MzL            	N016_MzL            	N017_MzL            	N018_MzL            	N019_MzL            	N020_MzL            	N021_MzL            	N022_MzL            	N023_MzL            	N024_MzL            	N025_MzL            	N026_MzL            	N027_MzL            	N028_MzL            	N029_MzL            	N030_MzL            	N031_MzL            	N032_MzL            	N033_MzL            	N034_MzL            	N035_MzL            	N036_MzL            	N037_MzL            	N038_MzL            	N039_MzL            	N040_MzL            	N041_MzL            	N042_MzL            	N043_MzL            	N044_MzL            	N045_MzL            	N046_MzL            	N047_MzL            	N048_MzL            	N049_MzL            	N050_MzL            	N051_MzL            	N001_TDxr           	N002_TDxr           	N003_TDxr           	N004_TDxr           	N005_TDxr           	N006_TDxr           	N007_TDxr           	N008_TDxr           	N009_TDxr           	N010_TDxr           	N011_TDxr           	N012_TDxr           	N013_TDxr           	N014_TDxr           	N015_TDxr           	N016_TDxr           	N017_TDxr           	N018_TDxr           	N019_TDxr           	N020_TDxr           	N021_TDxr           	N022_TDxr           	N023_TDxr           	N024_TDxr           	N025_TDxr           	N026_TDxr           	N027_TDxr           	N028_TDxr           	N029_TDxr           	N030_TDxr           	N031_TDxr           	N032_TDxr           	N033_TDxr           	N034_TDxr           	N035_TDxr           	N036_TDxr           	N037_TDxr           	N038_TDxr           	N039_TDxr           	N040_TDxr           	N041_TDxr           	N042_TDxr           	N043_TDxr           	N044_TDxr           	N045_TDxr           	N046_TDxr           	N047_TDxr           	N048_TDxr           	N049_TDxr           	N050_TDxr           	N051_TDxr           	N001_TDyr           	N002_TDyr           	N003_TDyr           	N004_TDyr           	N005_TDyr           	N006_TDyr           	N007_TDyr           	N008_TDyr           	N009_TDyr           	N010_TDyr           	N011_TDyr           	N012_TDyr           	N013_TDyr           	N014_TDyr           	N015_TDyr           	N016_TDyr           	N017_TDyr           	N018_TDyr           	N019_TDyr           	N020_TDyr           	N021_TDyr           	N022_TDyr           	N023_TDyr           	N024_TDyr           	N025_TDyr           	N026_TDyr           	N027_TDyr           	N028_TDyr           	N029_TDyr           	N030_TDyr           	N031_TDyr           	N032_TDyr           	N033_TDyr           	N034_TDyr           	N035_TDyr           	N036_TDyr           	N037_TDyr           	N038_TDyr           	N039_TDyr           	N040_TDyr           	N041_TDyr           	N042_TDyr           	N043_TDyr           	N044_TDyr           	N045_TDyr           	N046_TDyr           	N047_TDyr           	N048_TDyr           	N049_TDyr           	N050_TDyr           	N051_TDyr           	N001_TDzr           	N002_TDzr           	N003_TDzr           	N004_TDzr           	N005_TDzr           	N006_TDzr           	N007_TDzr           	N008_TDzr           	N009_TDzr           	N010_TDzr           	N011_TDzr           	N012_TDzr           	N013_TDzr           	N014_TDzr           	N015_TDzr           	N016_TDzr           	N017_TDzr           	N018_TDzr           	N019_TDzr           	N020_TDzr           	N021_TDzr           	N022_TDzr           	N023_TDzr           	N024_TDzr           	N025_TDzr           	N026_TDzr           	N027_TDzr           	N028_TDzr           	N029_TDzr           	N030_TDzr           	N031_TDzr           	N032_TDzr           	N033_TDzr           	N034_TDzr           	N035_TDzr           	N036_TDzr           	N037_TDzr           	N038_TDzr           	N039_TDzr           	N040_TDzr           	N041_TDzr           	N042_TDzr           	N043_TDzr           	N044_TDzr           	N045_TDzr           	N046_TDzr           	N047_TDzr           	N048_TDzr           	N049_TDzr           	N050_TDzr           	N051_TDzr           	N001_RDxr           	N002_RDxr           	N003_RDxr           	N004_RDxr           	N005_RDxr           	N006_RDxr           	N007_RDxr           	N008_RDxr           	N009_RDxr           	N010_RDxr           	N011_RDxr           	N012_RDxr           	N013_RDxr           	N014_RDxr           	N015_RDxr           	N016_RDxr           	N017_RDxr           	N018_RDxr           	N019_RDxr           	N020_RDxr           	N021_RDxr           	N022_RDxr           	N023_RDxr           	N024_RDxr           	N025_RDxr           	N026_RDxr           	N027_RDxr           	N028_RDxr           	N029_RDxr           	N030_RDxr           	N031_RDxr           	N032_RDxr           	N033_RDxr           	N034_RDxr           	N035_RDxr           	N036_RDxr           	N037_RDxr           	N038_RDxr           	N039_RDxr           	N040_RDxr           	N041_RDxr           	N042_RDxr           	N043_RDxr           	N044_RDxr           	N045_RDxr           	N046_RDxr           	N047_RDxr           	N048_RDxr           	N049_RDxr           	N050_RDxr           	N051_RDxr           	N001_RDyr           	N002_RDyr           	N003_RDyr           	N004_RDyr           	N005_RDyr           	N006_RDyr           	N007_RDyr           	N008_RDyr           	N009_RDyr           	N010_RDyr           	N011_RDyr           	N012_RDyr           	N013_RDyr           	N014_RDyr           	N015_RDyr           	N016_RDyr           	N017_RDyr           	N018_RDyr           	N019_RDyr           	N020_RDyr           	N021_RDyr           	N022_RDyr           	N023_RDyr           	N024_RDyr           	N025_RDyr           	N026_RDyr           	N027_RDyr           	N028_RDyr           	N029_RDyr           	N030_RDyr           	N031_RDyr           	N032_RDyr           	N033_RDyr           	N034_RDyr           	N035_RDyr           	N036_RDyr           	N037_RDyr           	N038_RDyr           	N039_RDyr           	N040_RDyr           	N041_RDyr           	N042_RDyr           	N043_RDyr           	N044_RDyr           	N045_RDyr           	N046_RDyr           	N047_RDyr           	N048_RDyr           	N049_RDyr           	N050_RDyr           	N051_RDyr           	N001_RDzr           	N002_RDzr           	N003_RDzr           	N004_RDzr           	N005_RDzr           	N006_RDzr           	N007_RDzr           	N008_RDzr           	N009_RDzr           	N010_RDzr           	N011_RDzr           	N012_RDzr           	N013_RDzr           	N014_RDzr           	N015_RDzr           	N016_RDzr           	N017_RDzr           	N018_RDzr           	N019_RDzr           	N020_RDzr           	N021_RDzr           	N022_RDzr           	N023_RDzr           	N024_RDzr           	N025_RDzr           	N026_RDzr           	N027_RDzr           	N028_RDzr           	N029_RDzr           	N030_RDzr           	N031_RDzr           	N032_RDzr           	N033_RDzr           	N034_RDzr           	N035_RDzr           	N036_RDzr           	N037_RDzr           	N038_RDzr           	N039_RDzr           	N040_RDzr           	N041_RDzr           	N042_RDzr           	N043_RDzr           	N044_RDzr           	N045_RDzr           	N046_RDzr           	N047_RDzr           	N048_RDzr           	N049_RDzr           	N050_RDzr           	N051_RDzr           
(s)	(m)	(m)	(m)	(-)	(-)	(-)	(N)	(N)	(N)	(N-m)	(N-m)	(N-m)	(N)	(N)	(N)	(N)	(N)	(N)	(N)	(N)	(N)	(N)	(N)	(N)	(N)	(N)	(N)	(N)	(N)	(N)	(N)	(N)	(N)	(N)	(N)	(N)	(N)	(N)	(N)	(N)	(N)	(N)	(N)	(N)	(N)	(N)	(N)	(N)	(N)	(N)	(N)	(N)	(N)	(N)	(N)	(N)	(N)	(N)	(N)	(N)	(N)	(N)	(N)	(N)	(N)	(N)	(N)	(N)	(N)	(N)	(N)	(N)	(N)	(N)	(N)	(N)	(N)	(N)	(N)	(N)	(N)	(N)	(N)	(N)	(N)	(N)	(N)	(N)	(N)	(N)	(N)	(N)	(N)	(N)	(N)	(N)	(N)	(N)	(N)	(N)	(N)	(N)	(N)	(N)	(N)	(N)	(N)	(N)	(N)	(N)	(N)	(N)	(N)	(N)	(N)	(N)	(N)	(N)	(N)	(N)	(N)	(N)	(N)	(N)	(N)	(N)	(N)	(N)	(N)	(N)	(N)	(N)	(N)	(N)	(N)	(N)	(N)	(N)	(N)	(N)	(N)	(N)	(N)	(N)	(N)	(N)	(N)	(N)	(N)	(N)	(N)	(N)	(N)	(N)	(N)	(N)	(N)	(N)	(N)	(N)	(N)	(N)	(N)	(N)	(N)	(N)	(N)	(N)	(N)	(N)	(N)	(N)	(N)	(N)	(N)	(N)	(N)	(N)	(N)	(N)	(N)	(N)	(N)	(N)	(N)	(N)	(N)	(N)	(N)	(N)	(N)	(N)	(N)	(N)	(N)	(N)	(N)	(N)	(N)	(N)	(N)	(N)	(N)	(N)	(N)	(N)	(N)	(N)	(N)	(N)	(N)	(N)	(N)	(N)	(N)	(N)	(N)	(N)	(N)	(N)	(N)	(N)	(N)	(N)	(N)	(N)	(N)	(N)	(N)	(N)	(N)	(N)	(N)	(N)	(N)	(N)	(N)	(N)	(N)	(N)	(N)	(N)	(N)	(N)	(N)	(N)	(N)	(N)	(N)	(N)	(N)	(N)	(N)	(N)	(N)	(N)	(N)	(N)	(N)	(N)	(N)	(N)	(N)	(N)	(N)	(N)	(N)	(N)	(N)	(N)	(N)	(N)	(N)	(N)	(N)	(N)	(N)	(N)	(N)	(N)	(N)	(N)	(N)	(N)	(N)	(N)	(N)	(N)	(N)	(N)	(N)	(N)	(N)	(N)	(N)	(N)	(N)	(N)	(N)	(N)	(N)	(N)	(N)	(N)	(N)	(N)	(N)	(N)	(N)	(N)	(N)	(N)	(N)	(N)	(N)	(N)	(N)	(N)	(N-m)	(N-m)	(N-m)	(N-m)	(N-m)	(N-m)	(N-m)	(N-m)	(N-m)	(N-m)	(N-m)	(N-m)	(N-m)	(N-m)	(N-m)	(N-m)	(N-m)	(N-m)	(N-m)	(N-m)	(N-m)	(N-m)	(N-m)	(N-m)	(N-m)	(N-m)	(N-m)	(N-m)	(N-m)	(N-m)	(N-m)	(N-m)	(N-m)	(N-m)	(N-m)	(N-m)	(N-m)	(N-m)	(N-m)	(N-m)	(N-m)	(N-m)	(N-m)	(N-m)	(N-m)	(N-m)	(N-m)	(N-m)	(N-m)	(N-m)	(N-m)	(N-m)	(N-m)	(N-m)	(N-m)	(N-m)	(N-m)	(N-m)	(N-m)	(N-m)	(N-m)	(N-m)	(N-m)	(N-m)	(N-m)	(N-m)	(N-m)	(N-m)	(N-m)	(N-m)	(N-m)	(N-m)	(N-m)	(N-m)	(N-m)	(N-m)	(N-m)	(N-m)	(N-m)	(N-m)	(N-m)	(N-m)	(N-m)	(N-m)	(N-m)	(N-m)	(N-m)	(N-m)	(N-m)	(N-m)	(N-m)	(N-m)	(N-m)	(N-m)	(N-m)	(N-m)	(N-m)	(N-m)	(N-m)	(N-m)	(N-m)	(N-m)	(N-m)	(N-m)	(N-m)	(N-m)	(N-m)	(N-m)	(N-m)	(N-m)	(N-m)	(N-m)	(N-m)	(N-m)	(N-m)	(N-m)	(N-m)	(N-m)	(N-m)	(N-m)	(N-m)	(N-m)	(N-m)	(N-m)	(N-m)	(N-m)	(N-m)	(N-m)	(N-m)	(N-m)	(N-m)	(N-m)	(N-m)	(N-m)	(N-m)	(N-m)	(N-m)	(N-m)	(N-m)	(N-m)	(N-m)	(N-m)	(N-m)	(N-m)	(N-m)	(N-m)	(N-m)	(N-m)	(N-m)	(N-m)	(N-m)	(N-m)	(N-m)	(m)	(m)	(m)	(m)	(m)	(m)	(m)	(m)	(m)	(m)	(m)	(m)	(m)	(m)	(m)	(m)	(m)	(m)	(m)	(m)	(m)	(m)	(m)	(m)	(m)	(m)	(m)	(m)	(m)	(m)	(m)	(m)	(m)	(m)	(m)	(m)	(m)	(m)	(m)	(m)	(m)	(m)	(m)	(m)	(m)	(m)	(m)	(m)	(m)	(m)	(m)	(m)	(m)	(m)	(m)	(m)	(m)	(m)	(m)	(m)	(m)	(m)	(m)	(m)	(m)	(m)	(m)	(m)	(m)	(m)	(m)	(m)	(m)	(m)	(m)	(m)	(m)	(m)	(m)	(m)	(m)	(m)	(m)	(m)	(m)	(m)	(m)	(m)	(m)	(m)	(m)	(m)	(m)	(m)	(m)	(m)	(m)	(m)	(m)	(m)	(m)	(m)	(m)	(m)	(m)	(m)	(m)	(m)	(m)	(m)	(m)	(m)	(m)	(m)	(m)	(m)	(m)	(m)	(m)	(m)	(m)	(m)	(m)	(m)	(m)	(m)	(m)	(m)	(m)	(m)	(m)	(m)	(m)	(m)	(m)	(m)	(m)	(m)	(m)	(m)	(m)	(m)	(m)	(m)	(m)	(m)	(m)	(m)	(m)	(m)	(m)	(m)	(m)	(-)	(-)	(-)	(-)	(-)	(-)	(-)	(-)	(-)	(-)	(-)	(-)	(-)	(-)	(-)	(-)	(-)	(-)	(-)	(-)	(-)	(-)	(-)	(-)	(-)	(-)	(-)	(-)	(-)	(-)	(-)	(-)	(-)	(-)	(-)	(-)	(-)	(-)	(-)	(-)	(-)	(-)	(-)	(-)	(-)	(-)	(-)	(-)	(-)	(-)	(-)	(-)	(-)	(-)	(-)	(-)	(-)	(-)	(-)	(-)	(-)	(-)	(-)	(-)	(-)	(-)	(-)	(-)	(-)	(-)	(-)	(-)	(-)	(-)	(-)	(-)	(-)	(-)	(-)	(-)	(-)	(-)	(-)	(-)	(-)	(-)	(-)	(-)	(-)	(-)	(-)	(-)	(-)	(-)	(-)	(-)	(-)	(-)	(-)	(-)	(-)	(-)	(-)	(-)	(-)	(-)	(-)	(-)	(-)	(-)	(-)	(-)	(-)	(-)	(-)	(-)	(-)	(-)	(-)	(-)	(-)	(-)	(-)	(-)	(-)	(-)	(-)	(-)	(-)	(-)	(-)	(-)	(-)	(-)	(-)	(-)	(-)	(-)	(-)	(-)	(-)	(-)	(-)	(-)	(-)	(-)	(-)	(-)	(-)	(-)	(-)	(-)	(-)